 Gaussian 03, Revision E.01,
 Gaussian 03:  AM64L-G03RevE.01 11-Sep-2007

 ----------------------------------------------------------------------
 #N B3LYP/6-31G* Integral=(Grid=UltraFine) Pop(MK,ReadRadii) SCF=XQC IO
 p(6/33=2)
 ----------------------------------------------------------------------

 ---
 CLR
 ---
 Symbolic Z-matrix:
 Charge =  1 Multiplicity = 1

                         Standard orientation:
 ---------------------------------------------------------------------
 Center     Atomic     Atomic              Coordinates (Angstroms)
 Number     Number      Type              X           Y           Z
 ---------------------------------------------------------------------
    1          1             0       -3.933549   -6.273934    0.875685
    2          6             0       -3.911328   -5.547552    0.063150
    3          1             0       -2.897010   -5.443516   -0.321642
    4          1             0       -4.560971   -5.941876   -0.717520
    5          6             0       -4.368198   -4.183031    0.572295
    6          8             0       -5.070042   -3.457653   -0.134279
    7          7             0       -4.015726   -3.710754    1.766150
    8          1             0       -3.431733   -4.264476    2.375526
    9          6             0       -4.439674   -2.379977    2.229870
   10          1             0       -5.528917   -2.345168    2.239588
   11          1             0       -4.097357   -2.242491    3.254876
   12          6             0       -3.907975   -1.217584    1.391780
   13          8             0       -2.804543   -1.291610    0.819964
   14          7             0       -4.692027   -0.149341    1.256027
   15          1             0       -5.603201   -0.115190    1.689727
   16          6             0       -4.204143    1.020636    0.532666
   17          1             0       -3.151557    0.992569    0.513959
   18          6             0       -4.748880    1.125052   -0.902417
   19          1             0       -5.828606    1.278068   -0.850421
   20          1             0       -4.315890    2.010789   -1.368890
   21          6             0       -4.494631   -0.050296   -1.827765
   22          7             0       -3.330048   -0.675160   -1.892290
   23          6             0       -3.537534   -1.625910   -2.793601
   24          1             0       -2.807725   -2.362152   -3.084877
   25          7             0       -4.773270   -1.567407   -3.246715
   26          1             0       -5.150944   -2.177046   -3.958430
   27          6             0       -5.420377   -0.591418   -2.670234
   28          1             0       -6.442318   -0.292309   -2.810518
   29          6             0       -4.661335    2.250419    1.262921
   30          8             0       -5.754256    2.243042    1.816815
   31          7             0       -3.767364    3.211350    1.377797
   32          1             0       -2.857964    3.118006    0.946321
   33          6             0       -4.150978    4.491312    1.866537
   34          1             0       -5.234218    4.603270    1.913751
   35          1             0       -3.731190    4.660312    2.858678
   36          1             0       -3.766772    5.189741    1.123996
   37          1             0        1.410391    7.924938   -2.239259
   38          6             0        1.737164    6.885165   -2.243851
   39          1             0        1.528366    6.448455   -3.220870
   40          1             0        2.798054    6.800538   -2.008648
   41          6             0        0.938452    6.143514   -1.194672
   42          8             0        0.252920    6.757883   -0.377144
   43          7             0        0.973924    4.822921   -1.273784
   44          1             0        1.529870    4.395393   -2.000548
   45          6             0        0.360337    3.929671   -0.292600
   46          1             0       -0.438785    4.433471    0.248638
   47          6             0       -0.179725    2.668685   -0.969199
   48          1             0       -0.951661    2.948988   -1.686577
   49          1             0        0.628903    2.172495   -1.506229
   50         16             0       -0.891416    1.488140    0.218737
   51          6             0        1.504957    3.529874    0.660389
   52          8             0        2.573503    3.146020    0.146216
   53          7             0        1.376864    3.550282    1.997862
   54          1             0        0.514435    3.851282    2.430795
   55          6             0        2.483685    3.156273    2.837331
   56          1             0        3.428496    3.301207    2.313885
   57          1             0        2.536959    3.758078    3.744496
   58          6             0        2.420683    1.705647    3.231278
   59          8             0        3.283611    1.241763    4.007379
   60          7             0        1.418353    0.963938    2.745160
   61          1             0        0.733122    1.365939    2.122021
   62          6             0        1.301716   -0.460297    3.121534
   63          1             0        1.193526   -0.501182    4.205042
   64          1             0        0.429629   -0.934286    2.671624
   65          6             0        2.567536   -1.185480    2.664697
   66          8             0        2.993628   -0.917071    1.535406
   67          7             0        3.179962   -2.077878    3.456140
   68          1             0        2.794005   -2.455727    4.309864
   69          1             0        4.532605   -3.470947    3.916207
   70          6             0        4.453610   -2.689691    3.159656
   71          1             0        5.233212   -1.950441    3.343286
   72          6             0        4.580144   -3.213125    1.732848
   73          8             0        3.751304   -4.003224    1.292354
   74          7             0        5.527605   -2.691114    0.957299
   75          1             0        6.143309   -1.983559    1.327536
   76          6             0        5.772984   -3.189335   -0.380796
   77          1             0        6.832597   -3.059900   -0.600172
   78          1             0        5.557110   -4.258352   -0.419558
   79          6             0        4.969813   -2.494414   -1.480633
   80          8             0        5.369691   -2.567973   -2.653480
   81          7             0        3.883737   -1.785443   -1.140084
   82          1             0        3.577431   -1.741880   -0.178315
   83          6             0        3.092898   -1.135687   -2.155210
   84          1             0        2.982249   -1.817591   -3.000824
   85          6             0        1.701138   -0.839610   -1.642552
   86          1             0        1.764520   -0.251485   -0.726351
   87          1             0        1.182897   -0.232534   -2.381936
   88          6             0        0.853156   -2.076092   -1.380340
   89          7             0       -0.452925   -1.988306   -1.203764
   90          6             0       -0.852791   -3.238681   -1.100349
   91          1             0       -1.875373   -3.546958   -0.944175
   92          7             0        0.181550   -4.041517   -1.204418
   93          1             0        0.125127   -5.047696   -1.151225
   94          6             0        1.291764   -3.370900   -1.380467
   95          1             0        2.285081   -3.761658   -1.536839
   96          6             0        3.671695    0.163394   -2.696261
   97          8             0        3.518996    0.385735   -3.908290
   98          7             0        4.364239    1.029599   -1.944120
   99          1             0        4.498335    0.845618   -0.959759
  100          6             0        4.807978    2.318857   -2.481206
  101          1             0        3.914447    2.878718   -2.756028
  102          1             0        5.323375    2.891376   -1.710502
  103          1             0        5.448332    2.267834   -3.362379
  104         30             0       -1.663116   -0.380165   -0.824999
 ---------------------------------------------------------------------

 SCF Done:  E(RB+HF-LYP) =  -4905.69021672     A.U. after    8 cycles

 The electronic state is 1-A.
 Alpha  occ. eigenvalues -- -347.37741 -88.94115 -42.34427 -37.32918 -37.32806
 Alpha  occ. eigenvalues --  -37.32746 -19.25263 -19.21088 -19.20133 -19.19766
 Alpha  occ. eigenvalues --  -19.18760 -19.18536 -19.17174 -19.16637 -19.16390
 Alpha  occ. eigenvalues --  -19.15962 -14.53363 -14.52752 -14.48401 -14.48326
 Alpha  occ. eigenvalues --  -14.47791 -14.47695 -14.45380 -14.45223 -14.44928
 Alpha  occ. eigenvalues --  -14.44467 -14.43456 -14.43301 -14.42270 -14.41698
 Alpha  occ. eigenvalues --  -10.41922 -10.39305 -10.37886 -10.37691 -10.37258
 Alpha  occ. eigenvalues --  -10.36999 -10.36630 -10.36469 -10.35413 -10.35165
 Alpha  occ. eigenvalues --  -10.34804 -10.34343 -10.33453 -10.33339 -10.33209
 Alpha  occ. eigenvalues --  -10.33042 -10.32590 -10.32238 -10.32167 -10.31902
 Alpha  occ. eigenvalues --  -10.31561 -10.30888 -10.30677 -10.30207 -10.30113
 Alpha  occ. eigenvalues --  -10.30036 -10.29933 -10.29130 -10.28100 -10.27156
 Alpha  occ. eigenvalues --  -10.24398  -8.00389  -5.96857  -5.96396  -5.96040
 Alpha  occ. eigenvalues --   -4.92240  -3.31467  -3.31288  -3.31189  -1.18808
 Alpha  occ. eigenvalues --   -1.18388  -1.16903  -1.13955  -1.12927  -1.12614
 Alpha  occ. eigenvalues --   -1.11297  -1.11124  -1.09045  -1.09006  -1.08677
 Alpha  occ. eigenvalues --   -1.07640  -1.04763  -1.04012  -1.03334  -1.02938
 Alpha  occ. eigenvalues --   -1.02293  -1.01548  -1.01051  -1.00794  -0.99833
 Alpha  occ. eigenvalues --   -0.99230  -0.98635  -0.96715  -0.91691  -0.89837
 Alpha  occ. eigenvalues --   -0.88860  -0.88527  -0.86456  -0.85464  -0.84624
 Alpha  occ. eigenvalues --   -0.82750  -0.82647  -0.81231  -0.81042  -0.80130
 Alpha  occ. eigenvalues --   -0.78111  -0.77304  -0.77174  -0.76856  -0.76304
 Alpha  occ. eigenvalues --   -0.76234  -0.74013  -0.72676  -0.71826  -0.70944
 Alpha  occ. eigenvalues --   -0.70504  -0.70132  -0.69920  -0.68297  -0.68219
 Alpha  occ. eigenvalues --   -0.67600  -0.67513  -0.66859  -0.66164  -0.66137
 Alpha  occ. eigenvalues --   -0.65972  -0.65192  -0.63842  -0.63342  -0.62502
 Alpha  occ. eigenvalues --   -0.61753  -0.61339  -0.60945  -0.60818  -0.60056
 Alpha  occ. eigenvalues --   -0.59781  -0.59587  -0.59365  -0.59051  -0.58880
 Alpha  occ. eigenvalues --   -0.58646  -0.57932  -0.57890  -0.57626  -0.57316
 Alpha  occ. eigenvalues --   -0.57302  -0.56986  -0.56933  -0.56852  -0.56736
 Alpha  occ. eigenvalues --   -0.56360  -0.56243  -0.55912  -0.55750  -0.55452
 Alpha  occ. eigenvalues --   -0.55023  -0.54903  -0.54238  -0.53142  -0.52943
 Alpha  occ. eigenvalues --   -0.52643  -0.52573  -0.52090  -0.51854  -0.51669
 Alpha  occ. eigenvalues --   -0.51473  -0.51227  -0.51020  -0.50795  -0.50565
 Alpha  occ. eigenvalues --   -0.50371  -0.50183  -0.49986  -0.49774  -0.49132
 Alpha  occ. eigenvalues --   -0.48986  -0.48848  -0.48518  -0.48442  -0.48242
 Alpha  occ. eigenvalues --   -0.47877  -0.47536  -0.47136  -0.46941  -0.46764
 Alpha  occ. eigenvalues --   -0.46576  -0.46336  -0.46179  -0.46137  -0.45768
 Alpha  occ. eigenvalues --   -0.45308  -0.45018  -0.44934  -0.44705  -0.44374
 Alpha  occ. eigenvalues --   -0.44242  -0.43968  -0.43647  -0.43500  -0.42888
 Alpha  occ. eigenvalues --   -0.42099  -0.41912  -0.41713  -0.40275  -0.39982
 Alpha  occ. eigenvalues --   -0.38286  -0.36752  -0.36444  -0.35417  -0.35195
 Alpha  occ. eigenvalues --   -0.35023  -0.34980  -0.34920  -0.34545  -0.34226
 Alpha  occ. eigenvalues --   -0.34059  -0.33946  -0.33223  -0.32806  -0.32700
 Alpha  occ. eigenvalues --   -0.32269  -0.32164  -0.31804  -0.30702  -0.30371
 Alpha  occ. eigenvalues --   -0.30250  -0.30093  -0.29031
 Alpha virt. eigenvalues --   -0.11319  -0.10810  -0.10328  -0.09372  -0.08177
 Alpha virt. eigenvalues --   -0.07574  -0.06760  -0.06473  -0.06254  -0.06049
 Alpha virt. eigenvalues --   -0.05648  -0.05296  -0.05145  -0.04223  -0.04176

 Mulliken atomic charges:
              1
     1  H    0.181173
     2  C   -0.542732
     3  H    0.156357
     4  H    0.211568
     5  C    0.595795
     6  O   -0.528882
     7  N   -0.563125
     8  H    0.337837
     9  C   -0.229680
    10  H    0.203357
    11  H    0.200148
    12  C    0.670371
    13  O   -0.571435
    14  N   -0.569500
    15  H    0.365285
    16  C   -0.067284
    17  H    0.158668
    18  C   -0.363101
    19  H    0.184002
    20  H    0.186049
    21  C    0.295773
    22  N   -0.583898
    23  C    0.242382
    24  H    0.193951
    25  N   -0.516660
    26  H    0.373776
    27  C    0.012652
    28  H    0.206124
    29  C    0.609871
    30  O   -0.534317
    31  N   -0.585993
    32  H    0.365771
    33  C   -0.324869
    34  H    0.211284
    35  H    0.175527
    36  H    0.171269
    37  H    0.199686
    38  C   -0.542393
    39  H    0.160318
    40  H    0.184507
    41  C    0.578819
    42  O   -0.519445
    43  N   -0.564432
    44  H    0.344702
    45  C   -0.039878
    46  H    0.171119
    47  C   -0.428690
    48  H    0.190105
    49  H    0.200758
    50  S   -0.363874
    51  C    0.635740
    52  O   -0.543899
    53  N   -0.613034
    54  H    0.341180
    55  C   -0.230940
    56  H    0.230782
    57  H    0.198429
    58  C    0.613093
    59  O   -0.547663
    60  N   -0.597992
    61  H    0.389353
    62  C   -0.230747
    63  H    0.175286
    64  H    0.190237
    65  C    0.659872
    66  O   -0.546600
    67  N   -0.571323
    68  H    0.343084
    69  H    0.181998
    70  C   -0.222765
    71  H    0.179048
    72  C    0.617716
    73  O   -0.541478
    74  N   -0.584378
    75  H    0.344420
    76  C   -0.235121
    77  H    0.196575
    78  H    0.210109
    79  C    0.583260
    80  O   -0.511512
    81  N   -0.657020
    82  H    0.413601
    83  C   -0.021807
    84  H    0.187562
    85  C   -0.419727
    86  H    0.220260
    87  H    0.188454
    88  C    0.274853
    89  N   -0.592763
    90  C    0.233744
    91  H    0.199985
    92  N   -0.545781
    93  H    0.366807
    94  C    0.034297
    95  H    0.228110
    96  C    0.622785
    97  O   -0.554106
    98  N   -0.583871
    99  H    0.339511
   100  C   -0.288334
   101  H    0.156474
   102  H    0.162913
   103  H    0.191628
   104  Zn   0.830876
 Sum of Mulliken charges=   1.00000

 Dipole moment (field-independent basis, Debye):
    X=   -12.5781    Y=   -11.4522    Z=     2.2946  Tot=    17.1647
 Quadrupole moment (field-independent basis, Debye-Ang):
   XX=  -270.6347   YY=  -274.9211   ZZ=  -309.9971
   XY=    28.8814   XZ=    51.3520   YZ=   -15.5635

 Normal termination of Gaussian 03 at Mon Nov  2 22:12:56 2015.
