 Gaussian 03, Revision E.01,
 Gaussian 03:  AM64L-G03RevE.01 11-Sep-2007

 ----------------------------------------------------------------------
 #N B3LYP/6-31G* Geom=PrintInputOrient Integral=(Grid=UltraFine) Opt SC
 F=XQC
 ----------------------------------------------------------------------

 ---
 CLR
 ---
 Symbolic Z-matrix:
 Charge =  1 Multiplicity = 1

 SCF Done:  E(RB+HF-LYP) =  -3074.15028213     A.U. after   13 cycles
 SCF Done:  E(RB+HF-LYP) =  -3074.18087204     A.U. after   14 cycles
 SCF Done:  E(RB+HF-LYP) =  -3074.19275479     A.U. after   12 cycles
 SCF Done:  E(RB+HF-LYP) =  -3074.19506130     A.U. after   11 cycles
 SCF Done:  E(RB+HF-LYP) =  -3074.19702095     A.U. after   12 cycles
 SCF Done:  E(RB+HF-LYP) =  -3074.19820104     A.U. after   12 cycles
 SCF Done:  E(RB+HF-LYP) =  -3074.19896412     A.U. after   11 cycles
 SCF Done:  E(RB+HF-LYP) =  -3074.19938461     A.U. after   11 cycles
 SCF Done:  E(RB+HF-LYP) =  -3074.19962425     A.U. after   11 cycles
 SCF Done:  E(RB+HF-LYP) =  -3074.19975337     A.U. after   10 cycles
 SCF Done:  E(RB+HF-LYP) =  -3074.19985224     A.U. after    8 cycles
 SCF Done:  E(RB+HF-LYP) =  -3074.19985362     A.U. after    8 cycles
 SCF Done:  E(RB+HF-LYP) =  -3074.19985422     A.U. after    8 cycles
 SCF Done:  E(RB+HF-LYP) =  -3074.19985439     A.U. after    8 cycles
 SCF Done:  E(RB+HF-LYP) =  -3074.19985458     A.U. after    7 cycles
 SCF Done:  E(RB+HF-LYP) =  -3074.19985461     A.U. after    7 cycles
 SCF Done:  E(RB+HF-LYP) =  -3074.19985466     A.U. after    7 cycles
 SCF Done:  E(RB+HF-LYP) =  -3074.19985470     A.U. after    7 cycles
 SCF Done:  E(RB+HF-LYP) =  -3074.19985469     A.U. after    6 cycles
 SCF Done:  E(RB+HF-LYP) =  -3074.19985472     A.U. after    6 cycles
 Optimization completed on the basis of negligible forces.
    -- Stationary point found.

                         Standard orientation:
 ---------------------------------------------------------------------
 Center     Atomic     Atomic              Coordinates (Angstroms)
 Number     Number      Type              X           Y           Z
 ---------------------------------------------------------------------
    1          1             0        2.223744   -3.861839   -0.873050
    2          6             0        2.680713   -3.180140   -1.596839
    3          1             0        3.761415   -3.342166   -1.604327
    4          1             0        2.279854   -3.429666   -2.584491
    5          6             0        2.286846   -1.761162   -1.261446
    6          8             0        1.071919   -1.460818   -1.202241
    7          7             0        3.278344   -0.882576   -1.050924
    8          1             0        4.224361   -1.233079   -1.125550
    9          6             0        3.104108    0.556486   -0.847792
   10          1             0        2.150612    0.856357   -1.289847
   11          6             0        3.202794    1.024096    0.615949
   12          1             0        4.227657    0.889636    0.981235
   13          1             0        3.027013    2.108623    0.601442
   14          6             0        2.275692    0.378986    1.608997
   15          7             0        0.942399    0.065297    1.366962
   16          6             0        0.446224   -0.412618    2.500557
   17          1             0       -0.564009   -0.765300    2.646600
   18          7             0        1.392304   -0.421420    3.461101
   19          1             0        1.264821   -0.731981    4.415188
   20          6             0        2.559157    0.070637    2.915154
   21          1             0        3.465699    0.170198    3.492038
   22          1             0        3.882765    1.065239   -1.423846
   23          1             0       -0.227503    5.449840   -0.316491
   24          6             0       -0.274283    4.640420   -1.055550
   25          1             0        0.567966    4.755678   -1.745351
   26          6             0       -0.232588    3.281347   -0.360243
   27          1             0        0.690077    3.186152    0.223733
   28          1             0       -1.071867    3.193505    0.338392
   29         16             0       -0.330870    1.915862   -1.619326
   30          1             0       -1.197759    4.756614   -1.631554
   31          1             0       -5.420291    0.715823    0.047355
   32          6             0       -4.811913    0.876707    0.943857
   33          1             0       -5.180884    0.211983    1.733281
   34          6             0       -3.326029    0.641189    0.654304
   35          1             0       -2.974996    1.342814   -0.114140
   36          1             0       -2.737223    0.863180    1.556932
   37          6             0       -3.013180   -0.751239    0.191821
   38          7             0       -1.722345   -1.141779   -0.158694
   39          6             0       -1.789376   -2.407621   -0.554784
   40          1             0       -0.957564   -2.990379   -0.918898
   41          7             0       -3.057114   -2.853234   -0.467771
   42          1             0       -3.377352   -3.776339   -0.727564
   43          6             0       -3.848188   -1.821157    0.002474
   44          1             0       -4.910188   -1.936111    0.148197
   45          1             0       -4.974532    1.906716    1.273158
   46         30             0       -0.094941    0.048255   -0.405626
 ---------------------------------------------------------------------

 The electronic state is 1-A.
 Alpha  occ. eigenvalues -- -347.34626 -88.89838 -42.31399 -37.29866 -37.29767
 Alpha  occ. eigenvalues --  -37.29718 -19.26787 -14.53561 -14.52121 -14.50194
 Alpha  occ. eigenvalues --  -14.48401 -14.47073 -10.43337 -10.39016 -10.37575
 Alpha  occ. eigenvalues --  -10.34963 -10.34870 -10.34151 -10.33275 -10.33075
 Alpha  occ. eigenvalues --  -10.31888 -10.31294 -10.29048 -10.27941 -10.26796
 Alpha  occ. eigenvalues --  -10.23939  -7.96124  -5.92581  -5.92130  -5.91759
 Alpha  occ. eigenvalues --   -4.89350  -3.28584  -3.28396  -3.28314  -1.17580
 Alpha  occ. eigenvalues --   -1.16169  -1.14682  -1.06159  -1.02159  -1.00692
 Alpha  occ. eigenvalues --   -0.91943  -0.89817  -0.88258  -0.84898  -0.84310
 Alpha  occ. eigenvalues --   -0.83952  -0.77992  -0.76142  -0.75829  -0.73534
 Alpha  occ. eigenvalues --   -0.73369  -0.72255  -0.71942  -0.69483  -0.68480
 Alpha  occ. eigenvalues --   -0.66467  -0.65055  -0.64344  -0.62306  -0.60151
 Alpha  occ. eigenvalues --   -0.58973  -0.58168  -0.57744  -0.57404  -0.56981
 Alpha  occ. eigenvalues --   -0.56504  -0.56151  -0.55730  -0.55308  -0.55161
 Alpha  occ. eigenvalues --   -0.54590  -0.54159  -0.53886  -0.53522  -0.53325
 Alpha  occ. eigenvalues --   -0.52753  -0.52196  -0.51554  -0.50614  -0.49401
 Alpha  occ. eigenvalues --   -0.48875  -0.47854  -0.46815  -0.46290  -0.45310
 Alpha  occ. eigenvalues --   -0.45083  -0.44105  -0.43396  -0.42943  -0.41848
 Alpha  occ. eigenvalues --   -0.41386  -0.40719  -0.39616  -0.38336  -0.36343
 Alpha  occ. eigenvalues --   -0.34770  -0.31898  -0.28230
 Alpha virt. eigenvalues --   -0.11817  -0.11459  -0.10285  -0.08386  -0.06603
 Alpha virt. eigenvalues --   -0.06317  -0.05463  -0.04162  -0.03974  -0.02996
 Alpha virt. eigenvalues --   -0.02234  -0.01290   0.00244   0.00604   0.01606

 Mulliken atomic charges:
              1
     1  H    0.199709
     2  C   -0.541170
     3  H    0.176726
     4  H    0.218174
     5  C    0.641588
     6  O   -0.569169
     7  N   -0.557344
     8  H    0.355287
     9  C   -0.200257
    10  H    0.238735
    11  C   -0.349248
    12  H    0.167554
    13  H    0.203316
    14  C    0.288585
    15  N   -0.585554
    16  C    0.262360
    17  H    0.210502
    18  N   -0.546350
    19  H    0.373716
    20  C   -0.012362
    21  H    0.199437
    22  H    0.192404
    23  H    0.148967
    24  C   -0.438077
    25  H    0.163100
    26  C   -0.393476
    27  H    0.152794
    28  H    0.163637
    29  S   -0.274812
    30  H    0.170167
    31  H    0.167824
    32  C   -0.461275
    33  H    0.153675
    34  C   -0.359761
    35  H    0.220978
    36  H    0.154355
    37  C    0.295424
    38  N   -0.607533
    39  C    0.269768
    40  H    0.209742
    41  N   -0.554295
    42  H    0.369516
    43  C   -0.012620
    44  H    0.197203
    45  H    0.173833
    46  Zn   0.724224
 Sum of Mulliken charges=   1.00000

 Dipole moment (field-independent basis, Debye):
    X=     3.6563    Y=    -8.6965    Z=     6.4922  Tot=    11.4520
 Quadrupole moment (field-independent basis, Debye-Ang):
   XX=   -78.6625   YY=  -111.9865   ZZ=  -118.0433
   XY=     8.3466   XZ=     0.7734   YZ=    10.2684

 Normal termination of Gaussian 03 at Tue Nov  3 00:28:50 2015.
