 Gaussian 03, Revision E.01,
 Gaussian 03:  AM64L-G03RevE.01 11-Sep-2007

 ----------------------------------------------------------------------
 #N B3LYP/6-31G* Freq=NoRaman Geom=AllCheckpoint Guess=Read Integral=(G
 rid=UltraFine) SCF=XQC IOp(7/33=1)
 ----------------------------------------------------------------------

 CLR
 ---
 Redundant internal coordinates taken from checkpoint file:
 1E67_small_opt.chk
 Charge =  1 Multiplicity = 1

                         Standard orientation:
 ---------------------------------------------------------------------
 Center     Atomic     Atomic              Coordinates (Angstroms)
 Number     Number      Type              X           Y           Z
 ---------------------------------------------------------------------
    1          1             0        2.223744   -3.861839   -0.873050
    2          6             0        2.680713   -3.180140   -1.596839
    3          1             0        3.761415   -3.342166   -1.604327
    4          1             0        2.279854   -3.429666   -2.584491
    5          6             0        2.286846   -1.761162   -1.261446
    6          8             0        1.071919   -1.460818   -1.202241
    7          7             0        3.278344   -0.882576   -1.050924
    8          1             0        4.224361   -1.233079   -1.125550
    9          6             0        3.104108    0.556486   -0.847792
   10          1             0        2.150612    0.856357   -1.289847
   11          6             0        3.202794    1.024096    0.615949
   12          1             0        4.227657    0.889636    0.981235
   13          1             0        3.027013    2.108623    0.601442
   14          6             0        2.275692    0.378986    1.608997
   15          7             0        0.942399    0.065297    1.366962
   16          6             0        0.446224   -0.412618    2.500557
   17          1             0       -0.564009   -0.765300    2.646600
   18          7             0        1.392304   -0.421420    3.461101
   19          1             0        1.264821   -0.731981    4.415188
   20          6             0        2.559157    0.070637    2.915154
   21          1             0        3.465699    0.170198    3.492038
   22          1             0        3.882765    1.065239   -1.423846
   23          1             0       -0.227503    5.449840   -0.316491
   24          6             0       -0.274283    4.640420   -1.055550
   25          1             0        0.567966    4.755678   -1.745351
   26          6             0       -0.232588    3.281347   -0.360243
   27          1             0        0.690077    3.186152    0.223733
   28          1             0       -1.071867    3.193505    0.338392
   29         16             0       -0.330870    1.915862   -1.619326
   30          1             0       -1.197759    4.756614   -1.631554
   31          1             0       -5.420291    0.715823    0.047355
   32          6             0       -4.811913    0.876707    0.943857
   33          1             0       -5.180884    0.211983    1.733281
   34          6             0       -3.326029    0.641189    0.654304
   35          1             0       -2.974996    1.342814   -0.114140
   36          1             0       -2.737223    0.863180    1.556932
   37          6             0       -3.013180   -0.751239    0.191821
   38          7             0       -1.722345   -1.141779   -0.158694
   39          6             0       -1.789376   -2.407621   -0.554784
   40          1             0       -0.957564   -2.990379   -0.918898
   41          7             0       -3.057114   -2.853234   -0.467771
   42          1             0       -3.377352   -3.776339   -0.727564
   43          6             0       -3.848188   -1.821157    0.002474
   44          1             0       -4.910188   -1.936111    0.148197
   45          1             0       -4.974532    1.906716    1.273158
   46         30             0       -0.094941    0.048255   -0.405626
 ---------------------------------------------------------------------

 SCF Done:  E(RB+HF-LYP) =  -3074.19985472     A.U. after    1 cycles

 The electronic state is 1-A.
 Alpha  occ. eigenvalues -- -347.34626 -88.89838 -42.31399 -37.29866 -37.29767
 Alpha  occ. eigenvalues --  -37.29718 -19.26787 -14.53561 -14.52121 -14.50194
 Alpha  occ. eigenvalues --  -14.48401 -14.47073 -10.43337 -10.39016 -10.37575
 Alpha  occ. eigenvalues --  -10.34963 -10.34870 -10.34151 -10.33275 -10.33075
 Alpha  occ. eigenvalues --  -10.31888 -10.31294 -10.29048 -10.27941 -10.26796
 Alpha  occ. eigenvalues --  -10.23939  -7.96124  -5.92581  -5.92130  -5.91759
 Alpha  occ. eigenvalues --   -4.89350  -3.28584  -3.28396  -3.28314  -1.17580
 Alpha  occ. eigenvalues --   -1.16169  -1.14682  -1.06159  -1.02159  -1.00692
 Alpha  occ. eigenvalues --   -0.91943  -0.89817  -0.88258  -0.84898  -0.84310
 Alpha  occ. eigenvalues --   -0.83952  -0.77992  -0.76142  -0.75829  -0.73534
 Alpha  occ. eigenvalues --   -0.73369  -0.72255  -0.71942  -0.69483  -0.68480
 Alpha  occ. eigenvalues --   -0.66467  -0.65055  -0.64344  -0.62306  -0.60151
 Alpha  occ. eigenvalues --   -0.58973  -0.58168  -0.57744  -0.57404  -0.56981
 Alpha  occ. eigenvalues --   -0.56504  -0.56151  -0.55730  -0.55308  -0.55161
 Alpha  occ. eigenvalues --   -0.54590  -0.54159  -0.53886  -0.53522  -0.53325
 Alpha  occ. eigenvalues --   -0.52753  -0.52196  -0.51554  -0.50614  -0.49401
 Alpha  occ. eigenvalues --   -0.48875  -0.47854  -0.46815  -0.46290  -0.45310
 Alpha  occ. eigenvalues --   -0.45083  -0.44105  -0.43396  -0.42943  -0.41848
 Alpha  occ. eigenvalues --   -0.41386  -0.40719  -0.39616  -0.38336  -0.36343
 Alpha  occ. eigenvalues --   -0.34770  -0.31898  -0.28230
 Alpha virt. eigenvalues --   -0.11817  -0.11459  -0.10285  -0.08386  -0.06603
 Alpha virt. eigenvalues --   -0.06317  -0.05463  -0.04162  -0.03974  -0.02996
 Alpha virt. eigenvalues --   -0.02234  -0.01290   0.00244   0.00604   0.01606

 Mulliken atomic charges:
              1
     1  H    0.199709
     2  C   -0.541170
     3  H    0.176725
     4  H    0.218174
     5  C    0.641590
     6  O   -0.569168
     7  N   -0.557345
     8  H    0.355287
     9  C   -0.200257
    10  H    0.238735
    11  C   -0.349248
    12  H    0.167554
    13  H    0.203317
    14  C    0.288586
    15  N   -0.585555
    16  C    0.262360
    17  H    0.210503
    18  N   -0.546349
    19  H    0.373716
    20  C   -0.012361
    21  H    0.199437
    22  H    0.192404
    23  H    0.148967
    24  C   -0.438077
    25  H    0.163100
    26  C   -0.393476
    27  H    0.152794
    28  H    0.163637
    29  S   -0.274812
    30  H    0.170167
    31  H    0.167824
    32  C   -0.461276
    33  H    0.153675
    34  C   -0.359762
    35  H    0.220978
    36  H    0.154355
    37  C    0.295424
    38  N   -0.607532
    39  C    0.269767
    40  H    0.209742
    41  N   -0.554295
    42  H    0.369516
    43  C   -0.012619
    44  H    0.197203
    45  H    0.173833
    46  Zn   0.724224
 Sum of Mulliken charges=   1.00000

 Dipole moment (field-independent basis, Debye):
    X=     3.6563    Y=    -8.6965    Z=     6.4922  Tot=    11.4520
 Quadrupole moment (field-independent basis, Debye-Ang):
   XX=   -78.6625   YY=  -111.9865   ZZ=  -118.0432
   XY=     8.3466   XZ=     0.7735   YZ=    10.2684

  Exact polarizability: 232.903   7.105 219.029  -2.301   3.218 176.794
 Approx polarizability: 330.990  20.663 305.452  -0.292   3.415 268.368

                     1                      2                      3
                     A                      A                      A
 Frequencies --    20.5280                26.9975                27.0888
 Red. masses --     3.8043                 3.5048                 3.7546
 Frc consts  --     0.0009                 0.0015                 0.0016
 IR Inten    --     0.2529                 0.1600                 0.1037

                     4                      5                      6
                     A                      A                      A
 Frequencies --    34.1610                41.2091                48.9770
 Red. masses --     4.1244                 2.3972                 4.5589
 Frc consts  --     0.0028                 0.0024                 0.0064
 IR Inten    --     3.5153                 0.4658                 2.3530

                     7                      8                      9
                     A                      A                      A
 Frequencies --    51.4017                68.5736                85.1909
 Red. masses --     3.4326                 2.2223                 2.0179
 Frc consts  --     0.0053                 0.0062                 0.0086
 IR Inten    --     1.0386                 0.0871                 0.3150

                    10                     11                     12
                     A                      A                      A
 Frequencies --    89.9373                94.8596               104.9810
 Red. masses --     5.2952                 1.9075                 4.9764
 Frc consts  --     0.0252                 0.0101                 0.0323
 IR Inten    --     4.8163                 4.4739                 1.7952

                    13                     14                     15
                     A                      A                      A
 Frequencies --   123.1141               135.7459               143.0625
 Red. masses --     5.1608                 4.1981                 4.0068
 Frc consts  --     0.0461                 0.0456                 0.0483
 IR Inten    --     0.1025                 5.7560                 2.7737

                    16                     17                     18
                     A                      A                      A
 Frequencies --   150.6637               164.4244               174.0594
 Red. masses --     4.6334                 5.3743                 6.6277
 Frc consts  --     0.0620                 0.0856                 0.1183
 IR Inten    --     6.3078                 7.0781                 5.8804

                    19                     20                     21
                     A                      A                      A
 Frequencies --   201.3509               210.2320               221.2411
 Red. masses --     4.6224                 4.0124                 1.8551
 Frc consts  --     0.1104                 0.1045                 0.0535
 IR Inten    --     0.7130                 9.0408                 6.4961

                    22                     23                     24
                     A                      A                      A
 Frequencies --   226.6636               236.1083               260.6437
 Red. masses --     4.1770                 5.5090                 1.1051
 Frc consts  --     0.1264                 0.1809                 0.0442
 IR Inten    --    14.7340                16.0908                 0.1946

                    25                     26                     27
                     A                      A                      A
 Frequencies --   278.3667               285.2463               303.7022
 Red. masses --     4.5139                 4.9114                 1.9003
 Frc consts  --     0.2061                 0.2354                 0.1033
 IR Inten    --    16.2905                 6.0093                12.5154

                    28                     29                     30
                     A                      A                      A
 Frequencies --   321.9095               349.4204               404.3659
 Red. masses --     2.5550                 2.5362                 8.2242
 Frc consts  --     0.1560                 0.1824                 0.7923
 IR Inten    --    11.3572                 9.3504                27.3569

                    31                     32                     33
                     A                      A                      A
 Frequencies --   451.0662               454.0071               516.9075
 Red. masses --     3.9142                 3.7654                 2.4813
 Frc consts  --     0.4692                 0.4573                 0.3906
 IR Inten    --    24.7569                12.3502                 7.8818

                    34                     35                     36
                     A                      A                      A
 Frequencies --   579.6110               588.3135               593.8944
 Red. masses --     1.8340                 1.8628                 1.9508
 Frc consts  --     0.3630                 0.3799                 0.4054
 IR Inten    --    58.4633               107.9077               101.1598

                    37                     38                     39
                     A                      A                      A
 Frequencies --   617.9748               643.0046               650.7072
 Red. masses --     3.5740                 2.8442                 1.7733
 Frc consts  --     0.8042                 0.6929                 0.4424
 IR Inten    --     3.0866                 5.7124                 7.1581

                    40                     41                     42
                     A                      A                      A
 Frequencies --   655.5582               657.0312               658.9824
 Red. masses --     3.7473                 2.1789                 3.2211
 Frc consts  --     0.9488                 0.5542                 0.8241
 IR Inten    --    13.5230                 8.8716                 1.7885

                    43                     44                     45
                     A                      A                      A
 Frequencies --   672.1072               685.7364               699.3767
 Red. masses --     1.6710                 2.2979                 2.7263
 Frc consts  --     0.4448                 0.6366                 0.7857
 IR Inten    --    14.7977                 4.5444                 1.5163

                    46                     47                     48
                     A                      A                      A
 Frequencies --   764.1677               773.3712               786.2115
 Red. masses --     1.2548                 1.4370                 1.1242
 Frc consts  --     0.4317                 0.5064                 0.4094
 IR Inten    --     7.8953                 8.0137                 3.6193

                    49                     50                     51
                     A                      A                      A
 Frequencies --   818.2855               827.6757               839.0391
 Red. masses --     1.3618                 1.3571                 1.3051
 Frc consts  --     0.5373                 0.5478                 0.5413
 IR Inten    --     2.8181                15.4106                19.3701

                    52                     53                     54
                     A                      A                      A
 Frequencies --   874.2126               912.1204               947.7745
 Red. masses --     2.3911                 2.6626                 3.9748
 Frc consts  --     1.0767                 1.3051                 2.1036
 IR Inten    --     0.3764                 4.7201                 4.2340

                    55                     56                     57
                     A                      A                      A
 Frequencies --   952.0093               975.2197               988.9926
 Red. masses --     4.7638                 3.2118                 2.4632
 Frc consts  --     2.5438                 1.7997                 1.4195
 IR Inten    --     2.8854                 1.5100                 2.2870

                    58                     59                     60
                     A                      A                      A
 Frequencies --   992.4593              1030.9239              1038.8335
 Red. masses --     1.9991                 2.0537                 2.4785
 Frc consts  --     1.1602                 1.2860                 1.5759
 IR Inten    --     7.4128                16.5058                22.5457

                    61                     62                     63
                     A                      A                      A
 Frequencies --  1040.4422              1051.7097              1074.7746
 Red. masses --     2.6515                 1.2076                 1.7294
 Frc consts  --     1.6912                 0.7870                 1.1770
 IR Inten    --    13.7517                 0.8237                 7.8859

                    64                     65                     66
                     A                      A                      A
 Frequencies --  1080.6248              1082.3049              1087.6577
 Red. masses --     2.1108                 1.9394                 1.9412
 Frc consts  --     1.4522                 1.3385                 1.3530
 IR Inten    --    16.3677                 8.7345                 3.6296

                    67                     68                     69
                     A                      A                      A
 Frequencies --  1108.5135              1112.6205              1115.1855
 Red. masses --     1.7448                 1.7425                 2.7483
 Frc consts  --     1.2632                 1.2709                 2.0138
 IR Inten    --    42.4058                30.4030                 7.6377

                    70                     71                     72
                     A                      A                      A
 Frequencies --  1129.7482              1186.4449              1187.7968
 Red. masses --     1.5395                 1.6504                 1.5762
 Frc consts  --     1.1577                 1.3688                 1.3102
 IR Inten    --     0.1101                 7.6821                 2.8321

                    73                     74                     75
                     A                      A                      A
 Frequencies --  1237.2912              1247.5892              1261.5537
 Red. masses --     1.4009                 2.0670                 2.1089
 Frc consts  --     1.2636                 1.8956                 1.9775
 IR Inten    --     8.4391                36.5395                 2.8558

                    76                     77                     78
                     A                      A                      A
 Frequencies --  1269.2436              1287.3756              1303.7112
 Red. masses --     1.4778                 1.2331                 1.1830
 Frc consts  --     1.4027                 1.2041                 1.1847
 IR Inten    --     2.1898                 1.2320                 2.8683

                    79                     80                     81
                     A                      A                      A
 Frequencies --  1305.1743              1307.2577              1314.1936
 Red. masses --     2.2695                 1.3741                 1.2650
 Frc consts  --     2.2778                 1.3835                 1.2873
 IR Inten    --     5.4737                 6.8666                45.5887

                    82                     83                     84
                     A                      A                      A
 Frequencies --  1332.3481              1347.0787              1357.2723
 Red. masses --     1.9350                 4.2189                 2.7089
 Frc consts  --     2.0238                 4.5106                 2.9402
 IR Inten    --    46.4355                12.3578                14.8986

                    85                     86                     87
                     A                      A                      A
 Frequencies --  1399.8040              1412.1329              1432.1245
 Red. masses --     1.7872                 1.5220                 1.2411
 Frc consts  --     2.0633                 1.7882                 1.4998
 IR Inten    --     6.4552                 9.9275                29.2873

                    88                     89                     90
                     A                      A                      A
 Frequencies --  1439.1556              1439.5487              1444.6696
 Red. masses --     1.2663                 1.2262                 1.2413
 Frc consts  --     1.5452                 1.4971                 1.5263
 IR Inten    --     9.5098                 3.7878                 2.7848

                    91                     92                     93
                     A                      A                      A
 Frequencies --  1497.3928              1499.6423              1501.1490
 Red. masses --     1.0472                 2.2102                 1.2329
 Frc consts  --     1.3834                 2.9286                 1.6369
 IR Inten    --    12.2557                20.9155                12.3148

                    94                     95                     96
                     A                      A                      A
 Frequencies --  1501.8029              1512.3780              1514.6152
 Red. masses --     2.4382                 1.0957                 1.1030
 Frc consts  --     3.2400                 1.4766                 1.4908
 IR Inten    --    18.3312                 5.4991                30.4906

                    97                     98                     99
                     A                      A                      A
 Frequencies --  1515.6544              1518.7013              1527.2764
 Red. masses --     1.0915                 1.0406                 1.0885
 Frc consts  --     1.4773                 1.4140                 1.4959
 IR Inten    --    14.5095                 7.3242                17.3682

                   100                    101                    102
                     A                      A                      A
 Frequencies --  1530.3668              1531.6842              1537.8737
 Red. masses --     1.0397                 1.0550                 1.0743
 Frc consts  --     1.4347                 1.4583                 1.4970
 IR Inten    --     9.5241                 1.4574                 5.1401

                   103                    104                    105
                     A                      A                      A
 Frequencies --  1547.7064              1550.9712              1606.1978
 Red. masses --     3.7754                 3.5730                 2.2476
 Frc consts  --     5.3283                 5.0639                 3.4164
 IR Inten    --    59.4426                46.0905               166.6791

                   106                    107                    108
                     A                      A                      A
 Frequencies --  1620.0860              1629.5954              1696.2006
 Red. masses --     4.9543                 4.8227                 6.7360
 Frc consts  --     7.6614                 7.5457                11.4185
 IR Inten    --    19.4935                32.3965               426.4774

                   109                    110                    111
                     A                      A                      A
 Frequencies --  3019.6256              3045.8983              3046.4172
 Red. masses --     1.0669                 1.0583                 1.0617
 Frc consts  --     5.7317                 5.7849                 5.8054
 IR Inten    --    25.2729                23.3288                16.6992

                   112                    113                    114
                     A                      A                      A
 Frequencies --  3051.8858              3057.4243              3065.0654
 Red. masses --     1.0390                 1.0448                 1.0867
 Frc consts  --     5.7017                 5.7542                 6.0149
 IR Inten    --    34.1516                23.2394                 1.8217

                   115                    116                    117
                     A                      A                      A
 Frequencies --  3073.6883              3081.4886              3084.9765
 Red. masses --     1.0357                 1.0732                 1.1069
 Frc consts  --     5.7651                 6.0039                 6.2066
 IR Inten    --     0.7824                43.7326                13.8476

                   118                    119                    120
                     A                      A                      A
 Frequencies --  3091.0624              3118.6902              3123.7402
 Red. masses --     1.0882                 1.0995                 1.1029
 Frc consts  --     6.1260                 6.3010                 6.3409
 IR Inten    --     4.6391                22.2317                22.0043

                   121                    122                    123
                     A                      A                      A
 Frequencies --  3130.6363              3137.9504              3141.1395
 Red. masses --     1.1072                 1.1042                 1.1015
 Frc consts  --     6.3936                 6.4058                 6.4032
 IR Inten    --    12.8495                24.1327                14.7549

                   124                    125                    126
                     A                      A                      A
 Frequencies --  3143.8259              3158.1652              3298.8393
 Red. masses --     1.1013                 1.1050                 1.0982
 Frc consts  --     6.4131                 6.4938                 7.0412
 IR Inten    --     1.1031                11.5149                 4.4475

                   127                    128                    129
                     A                      A                      A
 Frequencies --  3305.1534              3313.2916              3316.5964
 Red. masses --     1.1004                 1.0973                 1.1006
 Frc consts  --     7.0827                 7.0974                 7.1326
 IR Inten    --     2.3078                11.6193                 0.8418

                   130                    131                    132
                     A                      A                      A
 Frequencies --  3612.5002              3641.7204              3646.0485
 Red. masses --     1.0780                 1.0826                 1.0824
 Frc consts  --     8.2890                 8.4593                 8.4780
 IR Inten    --    47.7649               124.6073               122.7576

 - Thermochemistry -
 -------------------
 Temperature   298.150 Kelvin.  Pressure   1.00000 Atm.
 Atom  1 has atomic number  1 and mass   1.00783

 Molecular mass:   374.09930 amu.
 Principal axes and moments of inertia in atomic units:
                           1         2         3
     EIGENVALUES --  6702.432219289.26941**********
           X            0.99951  -0.02583  -0.01777
           Y            0.02612   0.99953   0.01602
           Z            0.01734  -0.01648   0.99971
 This molecule is an asymmetric top.
 Rotational symmetry number  1.
 Warning -- assumption of classical behavior for rotation
           may cause significant error
 Rotational temperatures (Kelvin)      0.01292     0.00932     0.00791
 Rotational constants (GHZ):           0.26927     0.19428     0.16478
 Zero-point vibrational energy    1013657.3 (Joules/Mol)
                                  242.26992 (Kcal/Mol)
 Warning -- explicit consideration of  37 degrees of freedom as
           vibrations may cause significant error
 Vibrational temperatures:     29.54    38.84    38.97    49.15    59.29
          (Kelvin)             70.47    73.96    98.66   122.57   129.40
                              136.48   151.04   177.13   195.31   205.83
                              216.77   236.57   250.43   289.70   302.48
                              318.32   326.12   339.71   375.01   400.51
                              410.41   436.96   463.16   502.74   581.79
                              648.98   653.21   743.71   833.93   846.45
                              854.48   889.13   925.14   936.22   943.20
                              945.32   948.13   967.01   986.62  1006.25
                             1099.47  1112.71  1131.18  1177.33  1190.84
                             1207.19  1257.80  1312.34  1363.63  1369.73
                             1403.12  1422.94  1427.93  1483.27  1494.65
                             1496.96  1513.17  1546.36  1554.78  1557.19
                             1564.89  1594.90  1600.81  1604.50  1625.45
                             1707.03  1708.97  1780.18  1795.00  1815.09
                             1826.16  1852.24  1875.75  1877.85  1880.85
                             1890.83  1916.95  1938.14  1952.81  2014.00
                             2031.74  2060.51  2070.62  2071.19  2078.55
                             2154.41  2157.65  2159.82  2160.76  2175.97
                             2179.19  2180.69  2185.07  2197.41  2201.85
                             2203.75  2212.65  2226.80  2231.50  2310.96
                             2330.94  2344.62  2440.45  4344.56  4382.36
                             4383.11  4390.98  4398.95  4409.94  4422.35
                             4433.57  4438.59  4447.34  4487.09  4494.36
                             4504.28  4514.81  4519.39  4523.26  4543.89
                             4746.29  4755.37  4767.08  4771.84  5197.58
                             5239.62  5245.84

 Zero-point correction=                           0.386082 (Hartree/Particle)
 Thermal correction to Energy=                    0.411935
 Thermal correction to Enthalpy=                  0.412879
 Thermal correction to Gibbs Free Energy=         0.326349
 Sum of electronic and zero-point Energies=          -3073.813773
 Sum of electronic and thermal Energies=             -3073.787920
 Sum of electronic and thermal Enthalpies=           -3073.786975
 Sum of electronic and thermal Free Energies=        -3073.873505

                     E (Thermal)             CV                S
                      KCal/Mol        Cal/Mol-Kelvin    Cal/Mol-Kelvin
 Total                  258.493             91.394            182.118
 Electronic               0.000              0.000              0.000
 Translational            0.889              2.981             43.651
 Rotational               0.889              2.981             34.877
 Vibrational            256.716             85.432            103.590
 Vibration  1             0.593              1.986              6.582
 Vibration  2             0.593              1.984              6.039
 Vibration  3             0.593              1.984              6.032
 Vibration  4             0.594              1.983              5.572
 Vibration  5             0.594              1.981              5.200
 Vibration  6             0.595              1.978              4.858
 Vibration  7             0.596              1.977              4.763
 Vibration  8             0.598              1.969              4.194
 Vibration  9             0.601              1.959              3.768
 Vibration 10             0.602              1.956              3.661
 Vibration 11             0.603              1.953              3.557
 Vibration 12             0.605              1.945              3.360
 Vibration 13             0.610              1.930              3.051
 Vibration 14             0.614              1.918              2.863
 Vibration 15             0.616              1.910              2.763
 Vibration 16             0.618              1.902              2.664
 Vibration 17             0.623              1.886              2.498
 Vibration 18             0.627              1.874              2.391
 Vibration 19             0.638              1.838              2.121
 Vibration 20             0.642              1.825              2.042
 Vibration 21             0.648              1.809              1.949
 Vibration 22             0.650              1.800              1.905
 Vibration 23             0.655              1.785              1.832
 Vibration 24             0.669              1.745              1.657
 Vibration 25             0.679              1.714              1.544
 Vibration 26             0.683              1.701              1.502
 Vibration 27             0.695              1.667              1.396
 Vibration 28             0.707              1.632              1.300
 Vibration 29             0.727              1.576              1.169
 Vibration 30             0.770              1.461              0.947
 Vibration 31             0.810              1.359              0.793
 Vibration 32             0.812              1.352              0.784
 Vibration 33             0.872              1.213              0.617
 Vibration 34             0.936              1.075              0.486
 Vibration 35             0.946              1.057              0.470
 Vibration 36             0.952              1.045              0.460
 Vibration 37             0.978              0.994              0.420

 Optimization completed on the basis of negligible forces.
    -- Stationary point found.
 Normal termination of Gaussian 03 at Tue Nov  3 02:29:18 2015.
