 Gaussian 03, Revision E.01,
 Gaussian 03:  AM64L-G03RevE.01 11-Sep-2007

 ----------------------------------------------------------------------
 #N B3LYP/SDD Integral=(Grid=UltraFine) Pop(MK,ReadRadii) SCF=XQC IOp(6
 /33=2)
 ----------------------------------------------------------------------

 ---
 CLR
 ---
 Symbolic Z-matrix:
 Charge =  2 Multiplicity = 1

                         Standard orientation:
 ---------------------------------------------------------------------
 Center     Atomic     Atomic              Coordinates (Angstroms)
 Number     Number      Type              X           Y           Z
 ---------------------------------------------------------------------
    1         76             0        0.031897   -0.085842   -0.042976
    2          7             0        1.369164   -1.223881   -1.119400
    3          6             0        1.154608   -1.902380   -2.260322
    4          6             0        2.204653   -2.609227   -2.910719
    5          6             0        3.474995   -2.570866   -2.364600
    6          6             0        3.703113   -1.920341   -1.149384
    7          6             0        2.629963   -1.255312   -0.546844
    8          6             0        4.992195   -1.886249   -0.482979
    9          6             0        5.133683   -1.245123    0.649861
   10          6             0        4.053761   -0.566388    1.287845
   11          6             0        2.813253   -0.559828    0.687817
   12          6             0        4.149690    0.201693    2.508665
   13          6             0        3.033191    0.843714    2.967482
   14          6             0        1.839063    0.782175    2.299924
   15          7             0        1.710007    0.076497    1.130857
   16          7             0       -1.668707   -0.386006   -1.177767
   17          6             0       -2.166115    0.317841   -2.145434
   18          6             0       -3.431256    0.175824   -2.713336
   19          6             0       -4.241880   -0.836549   -2.203094
   20          6             0       -3.785337   -1.645427   -1.158690
   21          6             0       -2.497518   -1.396239   -0.621269
   22          6             0       -4.535107   -2.728936   -0.539317
   23          6             0       -4.025843   -3.471826    0.428699
   24          6             0       -2.698117   -3.211492    0.980409
   25          6             0       -1.957760   -2.162707    0.415042
   26          6             0       -2.138921   -3.930630    2.000748
   27          6             0       -0.857642   -3.621190    2.437839
   28          6             0       -0.190838   -2.487214    1.844324
   29          7             0       -0.750245   -1.774602    0.863118
   30          7             0        0.496056    1.691355   -1.015123
   31          6             0        1.251084    1.864238   -2.101034
   32          6             0        1.461615    3.101918   -2.707157
   33          6             0        0.875983    4.224603   -2.139510
   34          6             0        0.107378    4.055580   -1.034578
   35          6             0       -0.118375    2.779354   -0.469668
   36          6             0       -0.547194    5.216043   -0.380276
   37          6             0       -1.260790    5.013587    0.680381
   38          6             0       -1.526198    3.659966    1.326694
   39          6             0       -0.904303    2.564125    0.665030
   40          6             0       -2.230638    3.418998    2.415476
   41          6             0       -2.406312    2.087001    2.879820
   42          6             0       -1.825932    0.969113    2.193837
   43          7             0       -1.060095    1.274025    1.106671
   44          1             0        0.280562   -1.900834   -2.659327
   45          1             0        2.041394   -3.103486   -3.720302
   46          1             0        4.200871   -2.996139   -2.829926
   47          1             0        5.745488   -2.306788   -0.888952
   48          1             0        5.996132   -1.237812    1.064131
   49          1             0        4.985328    0.275943    2.972337
   50          1             0        3.087187    1.351512    3.788648
   51          1             0        1.072116    1.227124    2.654237
   52          1             0       -1.604773    1.012120   -2.500192
   53          1             0       -3.764866    0.743048   -3.412814
   54          1             0       -5.103515   -1.012904   -2.584426
   55          1             0       -5.404206   -2.924183   -0.889547
   56          1             0       -4.555509   -4.187318    0.778301
   57          1             0       -2.614954   -4.666309    2.387418
   58          1             0       -0.436087   -4.150694    3.111629
   59          1             0        0.672693   -2.219374    2.158027
   60          1             0        1.716454    1.104484   -2.458569
   61          1             0        1.985436    3.167896   -3.503296
   62          1             0        1.014659    5.088557   -2.537703
   63          1             0       -0.415336    6.101442   -0.732485
   64          1             0       -1.662014    5.800043    1.066506
   65          1             0       -2.642252    4.148759    2.906265
   66          1             0       -2.930882    1.935643    3.665778
   67          1             0       -1.954280    0.064457    2.461820
 ---------------------------------------------------------------------

 SCF Done:  E(RB+HF-LYP) =  -1804.63293150     A.U. after   10 cycles

 The electronic state is 1-A.
 Alpha  occ. eigenvalues --  -14.58854 -14.58732 -14.58708 -14.58671 -14.58656
 Alpha  occ. eigenvalues --  -14.58488 -10.45035 -10.44834 -10.44473 -10.44442
 Alpha  occ. eigenvalues --  -10.44384 -10.44336 -10.44047 -10.43420 -10.43349
 Alpha  occ. eigenvalues --  -10.43034 -10.42971 -10.42700 -10.42432 -10.42044
 Alpha  occ. eigenvalues --  -10.42017 -10.41961 -10.41926 -10.41770 -10.40704
 Alpha  occ. eigenvalues --  -10.40268 -10.40193 -10.40164 -10.39968 -10.39879
 Alpha  occ. eigenvalues --  -10.39843 -10.39820 -10.39798 -10.39764 -10.39727
 Alpha  occ. eigenvalues --  -10.39471 -10.38821 -10.38707 -10.38597 -10.38581
 Alpha  occ. eigenvalues --  -10.38535 -10.38378  -3.63787  -2.07270  -2.07206
 Alpha  occ. eigenvalues --   -2.06005  -1.21197  -1.20446  -1.20160  -1.18108
 Alpha  occ. eigenvalues --   -1.17478  -1.17296  -1.07597  -1.07374  -1.07070
 Alpha  occ. eigenvalues --   -1.03897  -1.03541  -1.03344  -1.03336  -1.02852
 Alpha  occ. eigenvalues --   -1.02801  -0.98439  -0.97983  -0.97773  -0.97699
 Alpha  occ. eigenvalues --   -0.97292  -0.97088  -0.89693  -0.89060  -0.88942
 Alpha  occ. eigenvalues --   -0.87727  -0.87628  -0.87541  -0.87348  -0.87068
 Alpha  occ. eigenvalues --   -0.86940  -0.83708  -0.83652  -0.83533  -0.79310
 Alpha  occ. eigenvalues --   -0.78935  -0.78746  -0.78616  -0.78039  -0.77691
 Alpha  occ. eigenvalues --   -0.74640  -0.74486  -0.74429  -0.72864  -0.72769
 Alpha  occ. eigenvalues --   -0.72561  -0.71703  -0.71380  -0.71305  -0.69793
 Alpha  occ. eigenvalues --   -0.69666  -0.69624  -0.67806  -0.67365  -0.67253
 Alpha  occ. eigenvalues --   -0.67043  -0.66857  -0.66738  -0.66556  -0.66370
 Alpha  occ. eigenvalues --   -0.65856  -0.65599  -0.65421  -0.65061  -0.64438
 Alpha  occ. eigenvalues --   -0.63921  -0.63729  -0.63522  -0.63444  -0.63277
 Alpha  occ. eigenvalues --   -0.62592  -0.61341  -0.61299  -0.59926  -0.59564
 Alpha  occ. eigenvalues --   -0.58835  -0.58431  -0.58216  -0.57965  -0.56880
 Alpha  occ. eigenvalues --   -0.56331  -0.56293  -0.55896  -0.55463  -0.55278
 Alpha  occ. eigenvalues --   -0.53312  -0.52844  -0.52788  -0.52208  -0.51951
 Alpha  occ. eigenvalues --   -0.51721  -0.51663  -0.51244  -0.51122  -0.46424
 Alpha  occ. eigenvalues --   -0.46113  -0.45866  -0.45459  -0.45283  -0.45146
 Alpha  occ. eigenvalues --   -0.39923  -0.39814  -0.39213
 Alpha virt. eigenvalues --   -0.28462  -0.27341  -0.26991  -0.26469  -0.25897
 Alpha virt. eigenvalues --   -0.25617  -0.23145  -0.21797  -0.21582  -0.19331
 Alpha virt. eigenvalues --   -0.19287  -0.19087  -0.17741  -0.15351  -0.15289

 Mulliken atomic charges:
              1
     1  Os   1.121661
     2  N   -0.355980
     3  C   -0.193584
     4  C   -0.295754
     5  C   -0.375881
     6  C    0.485386
     7  C   -0.026281
     8  C   -0.442561
     9  C   -0.422000
    10  C    0.459074
    11  C   -0.033137
    12  C   -0.369806
    13  C   -0.283567
    14  C   -0.171865
    15  N   -0.340829
    16  N   -0.300434
    17  C   -0.233874
    18  C   -0.295093
    19  C   -0.379679
    20  C    0.477972
    21  C   -0.024877
    22  C   -0.433508
    23  C   -0.430590
    24  C    0.475728
    25  C   -0.004307
    26  C   -0.386081
    27  C   -0.301203
    28  C   -0.202524
    29  N   -0.314295
    30  N   -0.320837
    31  C   -0.214141
    32  C   -0.293719
    33  C   -0.390932
    34  C    0.461242
    35  C   -0.009273
    36  C   -0.433315
    37  C   -0.386295
    38  C    0.484635
    39  C    0.027637
    40  C   -0.399710
    41  C   -0.299120
    42  C   -0.185863
    43  N   -0.342948
    44  H    0.325651
    45  H    0.322308
    46  H    0.336906
    47  H    0.334702
    48  H    0.329075
    49  H    0.340030
    50  H    0.314135
    51  H    0.332747
    52  H    0.319872
    53  H    0.328147
    54  H    0.340055
    55  H    0.325975
    56  H    0.327686
    57  H    0.342323
    58  H    0.328591
    59  H    0.326724
    60  H    0.321996
    61  H    0.328049
    62  H    0.343940
    63  H    0.326249
    64  H    0.310890
    65  H    0.335854
    66  H    0.319370
    67  H    0.339252
 Sum of Mulliken charges=   2.00000

 Dipole moment (field-independent basis, Debye):
    X=    -0.1014    Y=     0.5762    Z=     0.1170  Tot=     0.5967
 Quadrupole moment (field-independent basis, Debye-Ang):
   XX=  -142.2815   YY=  -152.5498   ZZ=  -183.7990
   XY=    -0.0405   XZ=    -1.8447   YZ=    -1.9337

 Normal termination of Gaussian 03 at Mon Nov  2 22:12:41 2015.
