 Gaussian 03, Revision E.01,
 Gaussian 03:  AM64L-G03RevE.01 11-Sep-2007

 ----------------------------------------------------------------------
 #N B3LYP/SDD Geom=PrintInputOrient Integral=(Grid=UltraFine) Opt SCF=X
 QC
 ----------------------------------------------------------------------

 ---
 CLR
 ---
 Symbolic Z-matrix:
 Charge =  2 Multiplicity = 1

 SCF Done:  E(RB+HF-LYP) =  -1804.63343271     A.U. after   19 cycles
 SCF Done:  E(RB+HF-LYP) =  -1804.80443286     A.U. after   13 cycles
 SCF Done:  E(RB+HF-LYP) =  -1804.95395705     A.U. after   13 cycles
 SCF Done:  E(RB+HF-LYP) =  -1805.01448687     A.U. after   13 cycles
 SCF Done:  E(RB+HF-LYP) =  -1805.02561832     A.U. after   15 cycles
 SCF Done:  E(RB+HF-LYP) =  -1805.02707579     A.U. after   19 cycles
 SCF Done:  E(RB+HF-LYP) =  -1805.02741720     A.U. after   15 cycles
 SCF Done:  E(RB+HF-LYP) =  -1805.02749721     A.U. after   19 cycles
 SCF Done:  E(RB+HF-LYP) =  -1805.02750458     A.U. after   12 cycles
 SCF Done:  E(RB+HF-LYP) =  -1805.02750519     A.U. after   17 cycles
 SCF Done:  E(RB+HF-LYP) =  -1805.02750467     A.U. after   19 cycles
 SCF Done:  E(RB+HF-LYP) =  -1805.02750546     A.U. after   19 cycles
 SCF Done:  E(RB+HF-LYP) =  -1805.02749250     A.U. after   18 cycles
 SCF Done:  E(RB+HF-LYP) =  -1805.02750489     A.U. after   18 cycles
 Optimization completed.
    -- Stationary point found.

                         Standard orientation:
 ---------------------------------------------------------------------
 Center     Atomic     Atomic              Coordinates (Angstroms)
 Number     Number      Type              X           Y           Z
 ---------------------------------------------------------------------
    1         76             0       -0.000292   -0.000092   -0.001700
    2          7             0       -0.401208    1.759799    1.076777
    3          6             0       -1.200887    1.916339    2.159730
    4          6             0       -1.392073    3.169784    2.784742
    5          6             0       -0.746883    4.304695    2.288541
    6          6             0        0.096629    4.176950    1.150339
    7          6             0        0.236630    2.885303    0.574060
    8          6             0        0.813686    5.281356    0.553852
    9          6             0        1.617307    5.093806   -0.548146
   10          6             0        1.767605    3.787062   -1.147597
   11          6             0        1.067220    2.691612   -0.573725
   12          6             0        2.579616    3.528476   -2.286548
   13          6             0        2.651403    2.226313   -2.786172
   14          6             0        1.922384    1.187674   -2.163286
   15          7             0        1.137555    1.400978   -1.079099
   16          7             0       -1.324174   -1.226133    1.077349
   17          6             0       -1.060045   -1.995214    2.161606
   18          6             0       -2.049585   -2.787645    2.786921
   19          6             0       -3.354545   -2.798702    2.289429
   20          6             0       -3.665611   -2.006003    1.150075
   21          6             0       -2.617485   -1.238364    0.573752
   22          6             0       -4.980204   -1.939068    0.552500
   23          6             0       -5.219812   -1.150011   -0.549903
   24          6             0       -4.163839   -0.365292   -1.148873
   25          6             0       -2.865128   -0.422796   -0.574343
   26          6             0       -4.346281    0.467131   -2.287783
   27          6             0       -3.255091    1.181931   -2.786582
   28          6             0       -1.991200    1.071025   -2.163215
   29          7             0       -1.783034    0.284418   -1.079374
   30          7             0        1.722561   -0.533702    1.078640
   31          6             0        2.255452    0.079185    2.163584
   32          6             0        3.436194   -0.381536    2.789628
   33          6             0        4.098857   -1.505798    2.292244
   34          6             0        3.568775   -2.171276    1.152299
   35          6             0        2.380202   -1.647518    0.575315
   36          6             0        4.168815   -3.342883    0.554806
   37          6             0        3.606426   -3.944398   -0.548530
   38          6             0        2.399491   -3.422028   -1.148517
   39          6             0        1.799142   -2.269129   -0.573750
   40          6             0        1.771280   -3.995260   -2.288839
   41          6             0        0.607381   -3.407171   -2.788692
   42          6             0        0.070296   -2.258035   -2.164645
   43          7             0        0.645920   -1.685492   -1.079541
   44          1             0       -1.692719    1.028266    2.537098
   45          1             0       -2.044296    3.230462    3.649168
   46          1             0       -0.883433    5.273387    2.760247
   47          1             0        0.707116    6.268700    0.994442
   48          1             0        2.152582    5.931389   -0.986627
   49          1             0        3.133520    4.336085   -2.756091
   50          1             0        3.261858    1.992276   -3.651555
   51          1             0        1.966527    0.174279   -2.542721
   52          1             0       -0.045289   -1.975430    2.539429
   53          1             0       -1.776218   -3.381249    3.652484
   54          1             0       -4.124966   -3.401500    2.761247
   55          1             0       -5.781625   -2.525733    0.992824
   56          1             0       -6.212635   -1.106461   -0.988918
   57          1             0       -5.322486    0.542037   -2.757811
   58          1             0       -3.358056    1.827984   -3.651639
   59          1             0       -1.136379    1.617426   -2.542301
   60          1             0        1.730655    0.947983    2.541338
   61          1             0        3.812631    0.151878    3.655696
   62          1             0        5.006134   -1.871241    2.764264
   63          1             0        5.077296   -3.743624    0.995680
   64          1             0        4.065676   -4.825724   -0.987505
   65          1             0        2.195298   -4.877578   -2.759178
   66          1             0        0.100733   -3.818279   -3.655081
   67          1             0       -0.829813   -1.790460   -2.544264
 ---------------------------------------------------------------------

 The electronic state is 1-A.
 Alpha  occ. eigenvalues --  -14.58762 -14.58761 -14.58760 -14.58759 -14.58759
 Alpha  occ. eigenvalues --  -14.58759 -10.45044 -10.45043 -10.45042 -10.45002
 Alpha  occ. eigenvalues --  -10.45001 -10.45000 -10.44425 -10.44425 -10.44423
 Alpha  occ. eigenvalues --  -10.44422 -10.44422 -10.44420 -10.42530 -10.42528
 Alpha  occ. eigenvalues --  -10.42528 -10.42528 -10.42526 -10.42526 -10.41509
 Alpha  occ. eigenvalues --  -10.41508 -10.41508 -10.41507 -10.41506 -10.41505
 Alpha  occ. eigenvalues --  -10.40989 -10.40988 -10.40988 -10.40987 -10.40986
 Alpha  occ. eigenvalues --  -10.40986 -10.40299 -10.40298 -10.40297 -10.40237
 Alpha  occ. eigenvalues --  -10.40235 -10.40234  -3.63521  -2.06846  -2.06844
 Alpha  occ. eigenvalues --   -2.05636  -1.19784  -1.19078  -1.19077  -1.16635
 Alpha  occ. eigenvalues --   -1.16634  -1.16587  -1.06452  -1.06248  -1.06246
 Alpha  occ. eigenvalues --   -1.02208  -1.02207  -1.02159  -1.01935  -1.01917
 Alpha  occ. eigenvalues --   -1.01916  -0.96408  -0.96407  -0.96370  -0.95986
 Alpha  occ. eigenvalues --   -0.95903  -0.95902  -0.87523  -0.87335  -0.87333
 Alpha  occ. eigenvalues --   -0.86102  -0.86064  -0.86063  -0.85399  -0.85379
 Alpha  occ. eigenvalues --   -0.85378  -0.82070  -0.82069  -0.81937  -0.76797
 Alpha  occ. eigenvalues --   -0.76796  -0.76577  -0.76547  -0.75266  -0.75264
 Alpha  occ. eigenvalues --   -0.72910  -0.72908  -0.72885  -0.70125  -0.70083
 Alpha  occ. eigenvalues --   -0.70082  -0.69862  -0.69491  -0.69490  -0.68379
 Alpha  occ. eigenvalues --   -0.68335  -0.68335  -0.66129  -0.66080  -0.66077
 Alpha  occ. eigenvalues --   -0.64777  -0.64775  -0.64693  -0.64652  -0.64508
 Alpha  occ. eigenvalues --   -0.64507  -0.63554  -0.63553  -0.63542  -0.62293
 Alpha  occ. eigenvalues --   -0.62291  -0.62018  -0.61786  -0.61780  -0.61779
 Alpha  occ. eigenvalues --   -0.61559  -0.60436  -0.60435  -0.58476  -0.58476
 Alpha  occ. eigenvalues --   -0.57766  -0.57612  -0.56972  -0.56971  -0.55755
 Alpha  occ. eigenvalues --   -0.55629  -0.55627  -0.55292  -0.55290  -0.54819
 Alpha  occ. eigenvalues --   -0.52785  -0.52783  -0.52141  -0.51848  -0.51444
 Alpha  occ. eigenvalues --   -0.51444  -0.51222  -0.50874  -0.50872  -0.46071
 Alpha  occ. eigenvalues --   -0.45825  -0.45825  -0.44562  -0.44559  -0.44314
 Alpha  occ. eigenvalues --   -0.39617  -0.39616  -0.39029
 Alpha virt. eigenvalues --   -0.27929  -0.27043  -0.27040  -0.26852  -0.26645
 Alpha virt. eigenvalues --   -0.26644  -0.22955  -0.21680  -0.21680  -0.19604
 Alpha virt. eigenvalues --   -0.19602  -0.19593  -0.17602  -0.15672  -0.15667

 Mulliken atomic charges:
              1
     1  Os   1.201406
     2  N   -0.333240
     3  C   -0.143324
     4  C   -0.219925
     5  C   -0.337424
     6  C    0.514373
     7  C   -0.004625
     8  C   -0.417423
     9  C   -0.417380
    10  C    0.514230
    11  C   -0.004292
    12  C   -0.337422
    13  C   -0.219911
    14  C   -0.143113
    15  N   -0.333605
    16  N   -0.333457
    17  C   -0.143167
    18  C   -0.219947
    19  C   -0.337417
    20  C    0.514331
    21  C   -0.004644
    22  C   -0.417368
    23  C   -0.417390
    24  C    0.514297
    25  C   -0.004291
    26  C   -0.337417
    27  C   -0.219932
    28  C   -0.143236
    29  N   -0.333447
    30  N   -0.333431
    31  C   -0.143335
    32  C   -0.219888
    33  C   -0.337419
    34  C    0.514345
    35  C   -0.004491
    36  C   -0.417404
    37  C   -0.417395
    38  C    0.514212
    39  C   -0.004191
    40  C   -0.337398
    41  C   -0.219878
    42  C   -0.143245
    43  N   -0.333646
    44  H    0.263758
    45  H    0.262491
    46  H    0.280096
    47  H    0.268286
    48  H    0.268287
    49  H    0.280095
    50  H    0.262490
    51  H    0.263764
    52  H    0.263763
    53  H    0.262495
    54  H    0.280096
    55  H    0.268272
    56  H    0.268284
    57  H    0.280103
    58  H    0.262497
    59  H    0.263770
    60  H    0.263799
    61  H    0.262493
    62  H    0.280112
    63  H    0.268285
    64  H    0.268288
    65  H    0.280109
    66  H    0.262501
    67  H    0.263792
 Sum of Mulliken charges=   2.00000

 Dipole moment (field-independent basis, Debye):
    X=     0.0017    Y=     0.0013    Z=     0.0076  Tot=     0.0079
 Quadrupole moment (field-independent basis, Debye-Ang):
   XX=  -144.9646   YY=  -145.0392   ZZ=  -184.6997
   XY=    -0.0127   XZ=    -0.0070   YZ=     0.0098

 Normal termination of Gaussian 03 at Tue Nov  3 04:32:43 2015.
